
    -----------------------------------------------------------------------
          Psi4: An Open-Source Ab Initio Electronic Structure Package
                               Psi4 1.3.2 release

                         Git: Rev {} zzzzzzz 


    R. M. Parrish, L. A. Burns, D. G. A. Smith, A. C. Simmonett,
    A. E. DePrince III, E. G. Hohenstein, U. Bozkaya, A. Yu. Sokolov,
    R. Di Remigio, R. M. Richard, J. F. Gonthier, A. M. James,
    H. R. McAlexander, A. Kumar, M. Saitow, X. Wang, B. P. Pritchard,
    P. Verma, H. F. Schaefer III, K. Patkowski, R. A. King, E. F. Valeev,
    F. A. Evangelista, J. M. Turney, T. D. Crawford, and C. D. Sherrill,
    J. Chem. Theory Comput. 13(7) pp 3185--3197 (2017).
    (doi: 10.1021/acs.jctc.7b00174)


                         Additional Contributions by
    P. Kraus, H. Kruse, M. H. Lechner, M. C. Schieber, R. A. Shaw,
    A. Alenaizan, R. Galvelis, Z. L. Glick, S. Lehtola, and J. P. Misiewicz

    -----------------------------------------------------------------------


    Psi4 started on: Monday, 25 November 2019 05:15PM

    Process ID: 20401
    Host:       node005
    PSIDATADIR: /home/mi24ris/software-new/apps/psi4/1.3.2/share/psi4
    Memory:     500.0 MiB
    Threads:    36
    
  ==> Input File <==

--------------------------------------------------------------------------
memory 400 MiB

molecule Spicy {
  0 1
C         -5.22356        0.59596       -0.00000
C         -5.29165       -0.80143       -0.00000
C         -3.97934        1.23568       -0.00000
C         -2.80322        0.47802       -0.00000
C         -2.87131       -0.91936       -0.00000
C         -4.11552       -1.55909       -0.00000
H         -3.92666        2.31674        0.00000
H         -1.84065        0.97293        0.00000
H         -6.13344        1.18210        0.00000
H         -6.25421       -1.29634        0.00000
H         -1.96142       -1.50551        0.00000
H         -4.16820       -2.64015        0.00000

}

set {
  scf_type df
  reference rhf
  basis cc-pVTZ
  molden_write true
}

gradient("mp2")
--------------------------------------------------------------------------

  Memory set to 400.000 MiB by Python driver.
gradient() will perform analytic gradient computation.

*** tstart() called on node005
*** at Mon Nov 25 17:15:17 2019

   => Loading Basis Set <=

    Name: CC-PVTZ
    Role: ORBITAL
    Keyword: BASIS
    atoms 1-6  entry C          line   186 file /home/mi24ris/software-new/apps/psi4/1.3.2/share/psi4/basis/cc-pvtz.gbs 
    atoms 7-12 entry H          line    23 file /home/mi24ris/software-new/apps/psi4/1.3.2/share/psi4/basis/cc-pvtz.gbs 


         ---------------------------------------------------------
                                   SCF
               by Justin Turney, Rob Parrish, Andy Simmonett
                          and Daniel G. A. Smith
                              RHF Reference
                       36 Threads,    400 MiB Core
         ---------------------------------------------------------

  ==> Geometry <==

    Molecular point group: cs
    Full point group: Cs

    Geometry (in Angstrom), charge = 0, multiplicity = 1:

       Center              X                  Y                   Z               Mass       
    ------------   -----------------  -----------------  -----------------  -----------------
         C           -1.176126924928     0.757663462464     0.000000000000    12.000000000000
         C           -1.244216924928    -0.639726537536     0.000000000000    12.000000000000
         C            0.068093075072     1.397383462464     0.000000000000    12.000000000000
         C            1.244213075072     0.639723462464     0.000000000000    12.000000000000
         C            1.176123075072    -0.757656537536     0.000000000000    12.000000000000
         C           -0.068086924928    -1.397386537536     0.000000000000    12.000000000000
         H            0.120773075072     2.478443462464     0.000000000000     1.007825032230
         H            2.206783075072     1.134633462464     0.000000000000     1.007825032230
         H           -2.086006924928     1.343803462464     0.000000000000     1.007825032230
         H           -2.206776924928    -1.134636537536     0.000000000000     1.007825032230
         H            2.086013075072    -1.343806537536     0.000000000000     1.007825032230
         H           -0.120766924928    -2.478446537536     0.000000000000     1.007825032230

  Running in cs symmetry.

  Rotational constants: A =      0.18924  B =      0.18924  C =      0.09462 [cm^-1]
  Rotational constants: A =   5673.33063  B =   5673.32125  C =   2836.66297 [MHz]
  Nuclear repulsion =  203.019337013455583

  Charge       = 0
  Multiplicity = 1
  Electrons    = 42
  Nalpha       = 21
  Nbeta        = 21

  ==> Algorithm <==

  SCF Algorithm Type is DF.
  DIIS enabled.
  MOM disabled.
  Fractional occupation disabled.
  Guess Type is SAD.
  Energy threshold   = 1.00e-10
  Density threshold  = 1.00e-10
  Integral threshold = 0.00e+00

  ==> Primary Basis <==

  Basis Set: CC-PVTZ
    Blend: CC-PVTZ
    Number of shells: 96
    Number of basis function: 264
    Number of Cartesian functions: 300
    Spherical Harmonics?: true
    Max angular momentum: 3

   => Loading Basis Set <=

    Name: (CC-PVTZ AUX)
    Role: JKFIT
    Keyword: DF_BASIS_SCF
    atoms 1-6  entry C          line   125 file /home/mi24ris/software-new/apps/psi4/1.3.2/share/psi4/basis/cc-pvtz-jkfit.gbs 
    atoms 7-12 entry H          line    51 file /home/mi24ris/software-new/apps/psi4/1.3.2/share/psi4/basis/cc-pvtz-jkfit.gbs 

  ==> Pre-Iterations <==

   -------------------------------------------------------
    Irrep   Nso     Nmo     Nalpha   Nbeta   Ndocc  Nsocc
   -------------------------------------------------------
     A'       180     180       0       0       0       0
     A"        84      84       0       0       0       0
   -------------------------------------------------------
    Total     264     264      21      21      21       0
   -------------------------------------------------------

  ==> Integral Setup <==

  ==> DiskDFJK: Density-Fitted J/K Matrices <==

    J tasked:                  Yes
    K tasked:                  Yes
    wK tasked:                  No
    OpenMP threads:             36
    Integrals threads:          36
    Memory [MiB]:              300
    Algorithm:                Core
    Integral Cache:           NONE
    Schwarz Cutoff:          1E-12
    Fitting Condition:       1E-10

   => Auxiliary Basis Set <=

  Basis Set: (CC-PVTZ AUX)
    Blend: CC-PVTZ-JKFIT
    Number of shells: 210
    Number of basis function: 654
    Number of Cartesian functions: 786
    Spherical Harmonics?: true
    Max angular momentum: 4

  Minimum eigenvalue in the overlap matrix is 3.8769920960E-05.
  Using Symmetric Orthogonalization.

  SCF Guess: Superposition of Atomic Densities via on-the-fly atomic UHF.

  ==> Iterations <==

                           Total Energy        Delta E     RMS |[F,P]|

   @DF-RHF iter SAD:  -230.18983048442442   -2.30190e+02   0.00000e+00 
   @DF-RHF iter   1:  -230.63828810459100   -4.48458e-01   2.38952e-03 DIIS
   @DF-RHF iter   2:  -230.75243203613422   -1.14144e-01   1.11336e-03 DIIS
   @DF-RHF iter   3:  -230.77701700840430   -2.45850e-02   2.08299e-04 DIIS
   @DF-RHF iter   4:  -230.77842884281227   -1.41183e-03   2.41529e-05 DIIS
   @DF-RHF iter   5:  -230.77845203536540   -2.31926e-05   4.36575e-06 DIIS
   @DF-RHF iter   6:  -230.77845281072081   -7.75355e-07   4.81891e-07 DIIS
   @DF-RHF iter   7:  -230.77845282134530   -1.06245e-08   5.38042e-08 DIIS
   @DF-RHF iter   8:  -230.77845282148076   -1.35458e-10   8.70202e-09 DIIS
   @DF-RHF iter   9:  -230.77845282148309   -2.33058e-12   4.68333e-09 DIIS
   @DF-RHF iter  10:  -230.77845282148411   -1.02318e-12   7.06911e-10 DIIS
   @DF-RHF iter  11:  -230.77845282148400    1.13687e-13   1.03892e-10 DIIS
   @DF-RHF iter  12:  -230.77845282148374    2.55795e-13   1.33230e-11 DIIS
  Energy and wave function converged.


  ==> Post-Iterations <==

    Orbital Energies [Eh]
    ---------------------

    Doubly Occupied:                                                      

       1Ap   -11.235882     2Ap   -11.235322     3Ap   -11.235322  
       4Ap   -11.234112     5Ap   -11.234111     6Ap   -11.233519  
       7Ap    -1.145068     8Ap    -1.011149     9Ap    -1.011149  
      10Ap    -0.821515    11Ap    -0.821514    12Ap    -0.706264  
      13Ap    -0.643862    14Ap    -0.615074    15Ap    -0.585720  
      16Ap    -0.585719     1App   -0.498608    17Ap    -0.493245  
      18Ap    -0.493244     2App   -0.334310     3App   -0.334310  

    Virtual:                                                              

       4App    0.127284     5App    0.127284    19Ap     0.146195  
      20Ap     0.169990    21Ap     0.169990    22Ap     0.201165  
      23Ap     0.201165    24Ap     0.221554     6App    0.328364  
      25Ap     0.359170    26Ap     0.359170    27Ap     0.394697  
      28Ap     0.418025    29Ap     0.418026    30Ap     0.418631  
       7App    0.432718     8App    0.475351     9App    0.475351  
      31Ap     0.508423    32Ap     0.522226    33Ap     0.522226  
      34Ap     0.552145    10App    0.573590    11App    0.573590  
      35Ap     0.587439    36Ap     0.587439    37Ap     0.595650  
      38Ap     0.595651    12App    0.624580    39Ap     0.641439  
      40Ap     0.641686    41Ap     0.641686    42Ap     0.642823  
      13App    0.666911    43Ap     0.700741    44Ap     0.725200  
      45Ap     0.725201    46Ap     0.747845    47Ap     0.747846  
      14App    0.842196    15App    0.859084    16App    0.859084  
      48Ap     0.904226    49Ap     0.904227    50Ap     0.946665  
      17App    0.956260    18App    0.956261    51Ap     0.993296  
      52Ap     1.005754    53Ap     1.030609    54Ap     1.030610  
      55Ap     1.084857    19App    1.122329    56Ap     1.131744  
      20App    1.211456    21App    1.216937    22App    1.216938  
      57Ap     1.228153    58Ap     1.228154    23App    1.292655  
      24App    1.292656    59Ap     1.311534    60Ap     1.311536  
      61Ap     1.312014    62Ap     1.379495    63Ap     1.379496  
      64Ap     1.480117    65Ap     1.490416    66Ap     1.503528  
      67Ap     1.503529    25App    1.507122    26App    1.507123  
      68Ap     1.511051    69Ap     1.511052    27App    1.590215  
      28App    1.590217    70Ap     1.606341    71Ap     1.606344  
      72Ap     1.618827    73Ap     1.625527    74Ap     1.625530  
      75Ap     1.727566    76Ap     1.727569    77Ap     1.738200  
      29App    1.767779    30App    1.807674    78Ap     1.889724  
      79Ap     2.086603    80Ap     2.185434    81Ap     2.185437  
      82Ap     2.218121    83Ap     2.290554    84Ap     2.290558  
      31App    2.333668    85Ap     2.366246    32App    2.444226  
      33App    2.444227    86Ap     2.465698    87Ap     2.468085  
      88Ap     2.468088    34App    2.535779    35App    2.535779  
      36App    2.605249    89Ap     2.666116    90Ap     2.740698  
      91Ap     2.740699    92Ap     2.777164    93Ap     2.777164  
      37App    2.795754    38App    2.839105    94Ap     2.902378  
      95Ap     2.902379    96Ap     2.932898    39App    2.952864  
      40App    2.952865    41App    2.996314    42App    3.003925  
      43App    3.003926    97Ap     3.031898    98Ap     3.031898  
      44App    3.065783    45App    3.065784    99Ap     3.089295  
     100Ap     3.106495   101Ap     3.159487   102Ap     3.159487  
      46App    3.227470    47App    3.233284    48App    3.233284  
     103Ap     3.298753   104Ap     3.298754   105Ap     3.317720  
     106Ap     3.317722   107Ap     3.341622    49App    3.376097  
      50App    3.376099   108Ap     3.376442   109Ap     3.387921  
     110Ap     3.387922   111Ap     3.401684   112Ap     3.401685  
     113Ap     3.427319    51App    3.448960    52App    3.448960  
     114Ap     3.455281    53App    3.460236   115Ap     3.503788  
      54App    3.611823    55App    3.611825    56App    3.621048  
      57App    3.659881   116Ap     3.664853   117Ap     3.664856  
     118Ap     3.691058   119Ap     3.691058   120Ap     3.711304  
     121Ap     3.711306    58App    3.713741    59App    3.713743  
     122Ap     3.767317   123Ap     3.902743   124Ap     3.902744  
      60App    3.916666    61App    3.917129   125Ap     4.055224  
      62App    4.061053    63App    4.092801    64App    4.092804  
     126Ap     4.105367   127Ap     4.105368   128Ap     4.117409  
      65App    4.117635   129Ap     4.128066   130Ap     4.128810  
     131Ap     4.128813   132Ap     4.168692    66App    4.168855  
      67App    4.168857    68App    4.207118    69App    4.207120  
     133Ap     4.322291   134Ap     4.322293   135Ap     4.376067  
     136Ap     4.416144    70App    4.423933    71App    4.423936  
     137Ap     4.462292   138Ap     4.462298   139Ap     4.481123  
     140Ap     4.496191    72App    4.506881   141Ap     4.542083  
     142Ap     4.542088   143Ap     4.561277    73App    4.662032  
      74App    4.662034    75App    4.663498    76App    4.663502  
     144Ap     4.668959   145Ap     4.668961   146Ap     4.682349  
     147Ap     4.682350   148Ap     4.883514   149Ap     4.883519  
     150Ap     4.884229    77App    5.000678    78App    5.051697  
     151Ap     5.063418   152Ap     5.063422   153Ap     5.101966  
     154Ap     5.101968    79App    5.118343    80App    5.118352  
      81App    5.163540   155Ap     5.259258   156Ap     5.320713  
     157Ap     5.361157   158Ap     5.370066    82App    5.373781  
      83App    5.373790   159Ap     5.417475   160Ap     5.417480  
     161Ap     5.528646   162Ap     5.528653   163Ap     5.736874  
     164Ap     5.736877    84App    5.807937   165Ap     6.058382  
     166Ap     6.058389   167Ap     6.087828   168Ap     6.262846  
     169Ap     6.262848   170Ap     6.353979   171Ap     6.504298  
     172Ap     6.504303   173Ap     6.845809   174Ap     7.316615  
     175Ap     9.435957   176Ap    12.968130   177Ap    12.968157  
     178Ap    13.498264   179Ap    13.498286   180Ap    16.080803  

    Final Occupation by Irrep:
             Ap   App 
    DOCC [    18,    3 ]

  @DF-RHF Final Energy:  -230.77845282148374

   => Energetics <=

    Nuclear Repulsion Energy =            203.0193370134555835
    One-Electron Energy =                -712.5775401471262285
    Two-Electron Energy =                 278.7797503121869340
    Total Energy =                       -230.7784528214837110

Computation Completed


Properties will be evaluated at   0.000000,   0.000000,   0.000000 [a0]

Properties computed using the SCF density matrix

  Nuclear Dipole Moment: [e a0]
     X:     0.0000      Y:    -0.0000      Z:     0.0000

  Electronic Dipole Moment: [e a0]
     X:    -0.0000      Y:     0.0000      Z:     0.0000

  Dipole Moment: [e a0]
     X:    -0.0000      Y:    -0.0000      Z:     0.0000     Total:     0.0000

  Dipole Moment: [D]
     X:    -0.0000      Y:    -0.0000      Z:     0.0000     Total:     0.0000


*** tstop() called on node005 at Mon Nov 25 17:15:22 2019
Module time:
	user time   =     107.60 seconds =       1.79 minutes
	system time =      11.21 seconds =       0.19 minutes
	total time  =          5 seconds =       0.08 minutes
Total time:
	user time   =     107.60 seconds =       1.79 minutes
	system time =      11.21 seconds =       0.19 minutes
	total time  =          5 seconds =       0.08 minutes

*** tstart() called on node005
*** at Mon Nov 25 17:15:22 2019


  //>>>>>>>>>>>>>>>>>>>>>>>>>>>>>>>>>>>//
  //               DFMP2               //
  //<<<<<<<<<<<<<<<<<<<<<<<<<<<<<<<<<<<//

   => Loading Basis Set <=

    Name: (CC-PVTZ AUX)
    Role: RIFIT
    Keyword: DF_BASIS_MP2
    atoms 1-6  entry C          line   209 file /home/mi24ris/software-new/apps/psi4/1.3.2/share/psi4/basis/cc-pvtz-ri.gbs 
    atoms 7-12 entry H          line    19 file /home/mi24ris/software-new/apps/psi4/1.3.2/share/psi4/basis/cc-pvtz-ri.gbs 

	 --------------------------------------------------------
	                          DF-MP2                         
	      2nd-Order Density-Fitted Moller-Plesset Theory     
	              RMP2 Wavefunction,  36 Threads             
	                                                         
	        Rob Parrish, Justin Turney, Andy Simmonett,      
	           Ed Hohenstein, and C. David Sherrill          
	 --------------------------------------------------------

   => Auxiliary Basis Set <=

  Basis Set: (CC-PVTZ AUX)
    Blend: CC-PVTZ-RI
    Number of shells: 198
    Number of basis function: 666
    Number of Cartesian functions: 816
    Spherical Harmonics?: true
    Max angular momentum: 4

	 --------------------------------------------------------
	                 NBF =   264, NAUX =   666
	 --------------------------------------------------------
	   CLASS    FOCC     OCC    AOCC    AVIR     VIR    FVIR
	   PAIRS       0      21      21     243     243       0
	 --------------------------------------------------------


         ------------------------------------------------------------
                                     CPHF                           
                                  Rob Parrish                       
         ------------------------------------------------------------

  ==> Geometry <==

    Molecular point group: cs
    Full point group: Cs

    Geometry (in Angstrom), charge = 0, multiplicity = 1:

       Center              X                  Y                   Z               Mass       
    ------------   -----------------  -----------------  -----------------  -----------------
         C           -1.176126924928     0.757663462464     0.000000000000    12.000000000000
         C           -1.244216924928    -0.639726537536     0.000000000000    12.000000000000
         C            0.068093075072     1.397383462464     0.000000000000    12.000000000000
         C            1.244213075072     0.639723462464     0.000000000000    12.000000000000
         C            1.176123075072    -0.757656537536     0.000000000000    12.000000000000
         C           -0.068086924928    -1.397386537536     0.000000000000    12.000000000000
         H            0.120773075072     2.478443462464     0.000000000000     1.007825032230
         H            2.206783075072     1.134633462464     0.000000000000     1.007825032230
         H           -2.086006924928     1.343803462464     0.000000000000     1.007825032230
         H           -2.206776924928    -1.134636537536     0.000000000000     1.007825032230
         H            2.086013075072    -1.343806537536     0.000000000000     1.007825032230
         H           -0.120766924928    -2.478446537536     0.000000000000     1.007825032230

  Nuclear repulsion =  203.019337013455612
  Reference energy  = -230.778452821483739

  ==> Basis Set <==

  Basis Set: CC-PVTZ
    Blend: CC-PVTZ
    Number of shells: 96
    Number of basis function: 264
    Number of Cartesian functions: 300
    Spherical Harmonics?: true
    Max angular momentum: 3

  ==> CGRSolver (by Rob Parrish) <==

   Number of roots    =         1
   Preconditioning    =    JACOBI
   Convergence cutoff =     1E-06
   Maximum iterations =       100

  ==> CPHFRHamiltonian (by Rob Parrish) <== 

  ==> DiskDFJK: Density-Fitted J/K Matrices <==

    J tasked:                  Yes
    K tasked:                  Yes
    wK tasked:                  No
    OpenMP threads:             36
    Integrals threads:          36
    Memory [MiB]:              300
    Algorithm:                Core
    Integral Cache:           NONE
    Schwarz Cutoff:          1E-12
    Fitting Condition:       1E-10

   => Auxiliary Basis Set <=

  Basis Set: (CC-PVTZ AUX)
    Blend: CC-PVTZ-JKFIT
    Number of shells: 210
    Number of basis function: 654
    Number of Cartesian functions: 786
    Spherical Harmonics?: true
    Max angular momentum: 4

  ==> CPHF Iterations <==

  => Iterations <=

             Iter  Converged  Remaining    Residual
  CGR           1          0          1   7.629E-02
  CGR           2          0          1   1.260E-02
  CGR           3          0          1   2.260E-03
  CGR           4          0          1   3.866E-04
  CGR           5          0          1   4.779E-05
  CGR           6          0          1   4.475E-06
  CGR           7          1          0   6.493E-07

    CGRSolver converged.

  ==> DFCorrGrad: Density-Fitted Correlated Gradients <==

    OpenMP threads:             36
    Integrals threads:          36
    Memory [GiB]:            0.293
    Schwarz Cutoff:          0E+00
    Fitting Condition:       1E-10

   => Auxiliary Basis Set <=

  Basis Set: (CC-PVTZ AUX)
    Blend: CC-PVTZ-JKFIT
    Number of shells: 210
    Number of basis function: 654
    Number of Cartesian functions: 786
    Spherical Harmonics?: true
    Max angular momentum: 4

	-----------------------------------------------------------
	 ==================> DF-MP2 Energies <==================== 
	-----------------------------------------------------------
	 Reference Energy          =    -230.7784528214837394 [Eh]
	 Singles Energy            =      -0.0000000000000000 [Eh]
	 Same-Spin Energy          =      -0.2519255829108105 [Eh]
	 Opposite-Spin Energy      =      -0.7910925617705707 [Eh]
	 Correlation Energy        =      -1.0430181446813811 [Eh]
	 Total Energy              =    -231.8214709661651227 [Eh]
	-----------------------------------------------------------
	 ================> DF-SCS-MP2 Energies <================== 
	-----------------------------------------------------------
	 SCS Same-Spin Scale       =       0.3333333333333333 [-]
	 SCS Opposite-Spin Scale   =       1.2000000000000000 [-]
	 SCS Same-Spin Energy      =      -0.0839751943036035 [Eh]
	 SCS Opposite-Spin Energy  =      -0.9493110741246849 [Eh]
	 SCS Correlation Energy    =      -1.0332862684282884 [Eh]
	 SCS Total Energy          =    -231.8117390899120380 [Eh]
	-----------------------------------------------------------


  -Total Gradient:
     Atom            X                  Y                   Z
    ------   -----------------  -----------------  -----------------
       1       -0.005394875093     0.003479470182     0.000000000000
       2       -0.005704451360    -0.002934404133     0.000000000000
       3        0.000316335531     0.006399095958     0.000000000000
       4        0.005693642848     0.002927507873     0.000000000000
       5        0.005384017711    -0.003465500757     0.000000000000
       6       -0.000306768239    -0.006402913402     0.000000000000
       7        0.000202643742     0.004155087159     0.000000000000
       8        0.003702862361     0.001903584401     0.000000000000
       9       -0.003491388349     0.002248456979     0.000000000000
      10       -0.003697450608    -0.001901171321     0.000000000000
      11        0.003498553847    -0.002253958121     0.000000000000
      12       -0.000203122392    -0.004155254819     0.000000000000


*** tstop() called on node005 at Mon Nov 25 17:15:36 2019
Module time:
	user time   =     273.76 seconds =       4.56 minutes
	system time =      29.74 seconds =       0.50 minutes
	total time  =         14 seconds =       0.23 minutes
Total time:
	user time   =     381.38 seconds =       6.36 minutes
	system time =      40.95 seconds =       0.68 minutes
	total time  =         19 seconds =       0.32 minutes

    Psi4 stopped on: Monday, 25 November 2019 05:15PM
    Psi4 wall time for execution: 0:00:19.26

*** Psi4 exiting successfully. Buy a developer a beer!
